{
  "id": "h2so4",
  "name": "Sulfuric Acid",
  "formula": "H2SO4",
  "commonNames": ["Oil of Vitriol", "Battery Acid"],
  "molecularWeight": 98.08,
  "density": 1.84,
  "meltingPoint": 10.31,
  "boilingPoint": 337.0,
  "solubility": "Miscible with water",
  "physicalProperties": {
    "appearance": "Colorless to slightly yellow liquid",
    "odor": "Odorless",
    "state": "Liquid",
    "color": "Colorless",
    "viscosity": "High"
  },
  "chemicalProperties": {
    "pH": 0.3,
    "pKa": "Strong acid",
    "reactivity": "Highly reactive",
    "stability": "Stable under normal conditions",
    "oxidizingProperties": "Strong oxidizing agent",
    "reducingProperties": "None"
  },
  "safetyData": {
    "hazardClass": "Corrosive, Oxidizing",
    "riskPhrases": ["R35", "R37", "R38", "R41"],
    "safetyPhrases": ["S26", "S30", "S37", "S39", "S45"],
    "flashPoint": "Non-flammable",
    "autoIgnition": "Non-flammable",
    "explosiveLimits": "Non-explosive",
    "exposureLimits": {
      "TWA": "1 mg/m³",
      "STEL": "3 mg/m³"
    },
    "healthHazards": [
      "Severe skin burns",
      "Eye damage",
      "Respiratory irritation",
      "Toxic if ingested"
    ],
    "firstAid": {
      "skin": "Rinse with plenty of water",
      "eyes": "Rinse with plenty of water for 15 minutes",
      "inhalation": "Move to fresh air",
      "ingestion": "Do not induce vomiting, seek medical attention"
    }
  },
  "behaviorData": {
    "reactions": [
      "Neutralizes bases",
      "Dehydrates organic compounds",
      "Oxidizes metals",
      "Catalyzes esterification"
    ],
    "indicators": {
      "phenolphthalein": "Colorless in acidic solution",
      "methylOrange": "Red in acidic solution",
      "litmus": "Red in acidic solution"
    },
    "colorChanges": {
      "inWater": "Colorless solution",
      "withIndicators": "Various color changes based on pH"
    }
  },
  "visualSettings": {
    "color": "#FFFFFF",
    "transparency": 0.9,
    "texture": "liquid",
    "particleEffect": "none",
    "glowEffect": "none"
  },
  "concentrations": [
    {
      "name": "0.1M",
      "molarity": 0.1,
      "normality": 0.2,
      "density": 1.005,
      "color": "#FFFFFF"
    },
    {
      "name": "1.0M",
      "molarity": 1.0,
      "normality": 2.0,
      "density": 1.06,
      "color": "#FFFFFF"
    },
    {
      "name": "18.0M",
      "molarity": 18.0,
      "normality": 36.0,
      "density": 1.84,
      "color": "#FFFFFF"
    }
  ],
  "uses": [
    "Titration standard",
    "pH adjustment",
    "Dehydrating agent",
    "Catalyst in organic reactions"
  ],
  "storage": {
    "container": "Glass or plastic",
    "conditions": "Cool, dry place",
    "shelfLife": "Indefinite if properly stored",
    "incompatibilities": ["Bases", "Metals", "Organic compounds"]
  }
} 